PSF

       8 !NTITLE
 REMARKS original generated structure x-plor psf file
 REMARKS topology /home/lsl/software/mambaforge/envs/openmm8/lib/python3.11/site-packages/HyresBuilder/forcefield/top_RNA_mix.inp 
 REMARKS topology /home/lsl/software/mambaforge/envs/openmm8/lib/python3.11/site-packages/HyresBuilder/forcefield/top_hyres_mix.inp 
 REMARKS topology /home/lsl/software/mambaforge/envs/openmm8/lib/python3.11/site-packages/HyresBuilder/forcefield/top_DNA_mix.inp 
 REMARKS topology /home/lsl/software/mambaforge/envs/openmm8/lib/python3.11/site-packages/HyresBuilder/forcefield/top_AGs.inp 
 REMARKS topology /home/lsl/software/mambaforge/envs/openmm8/lib/python3.11/site-packages/HyresBuilder/forcefield/top_metabolome.inp 
 REMARKS topology /home/lsl/software/mambaforge/envs/openmm8/lib/python3.11/site-packages/HyresBuilder/forcefield/top_polymer.inp 
 REMARKS segment S001 { first none; last none; auto none  }

     150 !NATOM
       1 S001 1    QDM  BB   MMA    0.000000       41.0730           0
       2 S001 1    QDM  SC1  MAO    0.000000       58.0360           0
       3 S001 1    QDM  SC2  NC4    1.000000       73.1390           0
       4 S001 2    QDM  BB   MMA    0.000000       41.0730           0
       5 S001 2    QDM  SC1  MAO    0.000000       58.0360           0
       6 S001 2    QDM  SC2  NC4    1.000000       73.1390           0
       7 S001 3    QDM  BB   MMA    0.000000       41.0730           0
       8 S001 3    QDM  SC1  MAO    0.000000       58.0360           0
       9 S001 3    QDM  SC2  NC4    1.000000       73.1390           0
      10 S001 4    QDM  BB   MMA    0.000000       41.0730           0
      11 S001 4    QDM  SC1  MAO    0.000000       58.0360           0
      12 S001 4    QDM  SC2  NC4    1.000000       73.1390           0
      13 S001 5    QDM  BB   MMA    0.000000       41.0730           0
      14 S001 5    QDM  SC1  MAO    0.000000       58.0360           0
      15 S001 5    QDM  SC2  NC4    1.000000       73.1390           0
      16 S001 6    QDM  BB   MMA    0.000000       41.0730           0
      17 S001 6    QDM  SC1  MAO    0.000000       58.0360           0
      18 S001 6    QDM  SC2  NC4    1.000000       73.1390           0
      19 S001 7    QDM  BB   MMA    0.000000       41.0730           0
      20 S001 7    QDM  SC1  MAO    0.000000       58.0360           0
      21 S001 7    QDM  SC2  NC4    1.000000       73.1390           0
      22 S001 8    QDM  BB   MMA    0.000000       41.0730           0
      23 S001 8    QDM  SC1  MAO    0.000000       58.0360           0
      24 S001 8    QDM  SC2  NC4    1.000000       73.1390           0
      25 S001 9    QDM  BB   MMA    0.000000       41.0730           0
      26 S001 9    QDM  SC1  MAO    0.000000       58.0360           0
      27 S001 9    QDM  SC2  NC4    1.000000       73.1390           0
      28 S001 10   QDM  BB   MMA    0.000000       41.0730           0
      29 S001 10   QDM  SC1  MAO    0.000000       58.0360           0
      30 S001 10   QDM  SC2  NC4    1.000000       73.1390           0
      31 S001 11   QDM  BB   MMA    0.000000       41.0730           0
      32 S001 11   QDM  SC1  MAO    0.000000       58.0360           0
      33 S001 11   QDM  SC2  NC4    1.000000       73.1390           0
      34 S001 12   QDM  BB   MMA    0.000000       41.0730           0
      35 S001 12   QDM  SC1  MAO    0.000000       58.0360           0
      36 S001 12   QDM  SC2  NC4    1.000000       73.1390           0
      37 S001 13   QDM  BB   MMA    0.000000       41.0730           0
      38 S001 13   QDM  SC1  MAO    0.000000       58.0360           0
      39 S001 13   QDM  SC2  NC4    1.000000       73.1390           0
      40 S001 14   QDM  BB   MMA    0.000000       41.0730           0
      41 S001 14   QDM  SC1  MAO    0.000000       58.0360           0
      42 S001 14   QDM  SC2  NC4    1.000000       73.1390           0
      43 S001 15   QDM  BB   MMA    0.000000       41.0730           0
      44 S001 15   QDM  SC1  MAO    0.000000       58.0360           0
      45 S001 15   QDM  SC2  NC4    1.000000       73.1390           0
      46 S001 16   QDM  BB   MMA    0.000000       41.0730           0
      47 S001 16   QDM  SC1  MAO    0.000000       58.0360           0
      48 S001 16   QDM  SC2  NC4    1.000000       73.1390           0
      49 S001 17   QDM  BB   MMA    0.000000       41.0730           0
      50 S001 17   QDM  SC1  MAO    0.000000       58.0360           0
      51 S001 17   QDM  SC2  NC4    1.000000       73.1390           0
      52 S001 18   QDM  BB   MMA    0.000000       41.0730           0
      53 S001 18   QDM  SC1  MAO    0.000000       58.0360           0
      54 S001 18   QDM  SC2  NC4    1.000000       73.1390           0
      55 S001 19   QDM  BB   MMA    0.000000       41.0730           0
      56 S001 19   QDM  SC1  MAO    0.000000       58.0360           0
      57 S001 19   QDM  SC2  NC4    1.000000       73.1390           0
      58 S001 20   QDM  BB   MMA    0.000000       41.0730           0
      59 S001 20   QDM  SC1  MAO    0.000000       58.0360           0
      60 S001 20   QDM  SC2  NC4    1.000000       73.1390           0
      61 S001 21   QDM  BB   MMA    0.000000       41.0730           0
      62 S001 21   QDM  SC1  MAO    0.000000       58.0360           0
      63 S001 21   QDM  SC2  NC4    1.000000       73.1390           0
      64 S001 22   QDM  BB   MMA    0.000000       41.0730           0
      65 S001 22   QDM  SC1  MAO    0.000000       58.0360           0
      66 S001 22   QDM  SC2  NC4    1.000000       73.1390           0
      67 S001 23   QDM  BB   MMA    0.000000       41.0730           0
      68 S001 23   QDM  SC1  MAO    0.000000       58.0360           0
      69 S001 23   QDM  SC2  NC4    1.000000       73.1390           0
      70 S001 24   QDM  BB   MMA    0.000000       41.0730           0
      71 S001 24   QDM  SC1  MAO    0.000000       58.0360           0
      72 S001 24   QDM  SC2  NC4    1.000000       73.1390           0
      73 S001 25   QDM  BB   MMA    0.000000       41.0730           0
      74 S001 25   QDM  SC1  MAO    0.000000       58.0360           0
      75 S001 25   QDM  SC2  NC4    1.000000       73.1390           0
      76 S001 26   QDM  BB   MMA    0.000000       41.0730           0
      77 S001 26   QDM  SC1  MAO    0.000000       58.0360           0
      78 S001 26   QDM  SC2  NC4    1.000000       73.1390           0
      79 S001 27   QDM  BB   MMA    0.000000       41.0730           0
      80 S001 27   QDM  SC1  MAO    0.000000       58.0360           0
      81 S001 27   QDM  SC2  NC4    1.000000       73.1390           0
      82 S001 28   QDM  BB   MMA    0.000000       41.0730           0
      83 S001 28   QDM  SC1  MAO    0.000000       58.0360           0
      84 S001 28   QDM  SC2  NC4    1.000000       73.1390           0
      85 S001 29   QDM  BB   MMA    0.000000       41.0730           0
      86 S001 29   QDM  SC1  MAO    0.000000       58.0360           0
      87 S001 29   QDM  SC2  NC4    1.000000       73.1390           0
      88 S001 30   QDM  BB   MMA    0.000000       41.0730           0
      89 S001 30   QDM  SC1  MAO    0.000000       58.0360           0
      90 S001 30   QDM  SC2  NC4    1.000000       73.1390           0
      91 S001 31   QDM  BB   MMA    0.000000       41.0730           0
      92 S001 31   QDM  SC1  MAO    0.000000       58.0360           0
      93 S001 31   QDM  SC2  NC4    1.000000       73.1390           0
      94 S001 32   QDM  BB   MMA    0.000000       41.0730           0
      95 S001 32   QDM  SC1  MAO    0.000000       58.0360           0
      96 S001 32   QDM  SC2  NC4    1.000000       73.1390           0
      97 S001 33   QDM  BB   MMA    0.000000       41.0730           0
      98 S001 33   QDM  SC1  MAO    0.000000       58.0360           0
      99 S001 33   QDM  SC2  NC4    1.000000       73.1390           0
     100 S001 34   QDM  BB   MMA    0.000000       41.0730           0
     101 S001 34   QDM  SC1  MAO    0.000000       58.0360           0
     102 S001 34   QDM  SC2  NC4    1.000000       73.1390           0
     103 S001 35   QDM  BB   MMA    0.000000       41.0730           0
     104 S001 35   QDM  SC1  MAO    0.000000       58.0360           0
     105 S001 35   QDM  SC2  NC4    1.000000       73.1390           0
     106 S001 36   QDM  BB   MMA    0.000000       41.0730           0
     107 S001 36   QDM  SC1  MAO    0.000000       58.0360           0
     108 S001 36   QDM  SC2  NC4    1.000000       73.1390           0
     109 S001 37   QDM  BB   MMA    0.000000       41.0730           0
     110 S001 37   QDM  SC1  MAO    0.000000       58.0360           0
     111 S001 37   QDM  SC2  NC4    1.000000       73.1390           0
     112 S001 38   QDM  BB   MMA    0.000000       41.0730           0
     113 S001 38   QDM  SC1  MAO    0.000000       58.0360           0
     114 S001 38   QDM  SC2  NC4    1.000000       73.1390           0
     115 S001 39   QDM  BB   MMA    0.000000       41.0730           0
     116 S001 39   QDM  SC1  MAO    0.000000       58.0360           0
     117 S001 39   QDM  SC2  NC4    1.000000       73.1390           0
     118 S001 40   QDM  BB   MMA    0.000000       41.0730           0
     119 S001 40   QDM  SC1  MAO    0.000000       58.0360           0
     120 S001 40   QDM  SC2  NC4    1.000000       73.1390           0
     121 S001 41   QDM  BB   MMA    0.000000       41.0730           0
     122 S001 41   QDM  SC1  MAO    0.000000       58.0360           0
     123 S001 41   QDM  SC2  NC4    1.000000       73.1390           0
     124 S001 42   QDM  BB   MMA    0.000000       41.0730           0
     125 S001 42   QDM  SC1  MAO    0.000000       58.0360           0
     126 S001 42   QDM  SC2  NC4    1.000000       73.1390           0
     127 S001 43   QDM  BB   MMA    0.000000       41.0730           0
     128 S001 43   QDM  SC1  MAO    0.000000       58.0360           0
     129 S001 43   QDM  SC2  NC4    1.000000       73.1390           0
     130 S001 44   QDM  BB   MMA    0.000000       41.0730           0
     131 S001 44   QDM  SC1  MAO    0.000000       58.0360           0
     132 S001 44   QDM  SC2  NC4    1.000000       73.1390           0
     133 S001 45   QDM  BB   MMA    0.000000       41.0730           0
     134 S001 45   QDM  SC1  MAO    0.000000       58.0360           0
     135 S001 45   QDM  SC2  NC4    1.000000       73.1390           0
     136 S001 46   QDM  BB   MMA    0.000000       41.0730           0
     137 S001 46   QDM  SC1  MAO    0.000000       58.0360           0
     138 S001 46   QDM  SC2  NC4    1.000000       73.1390           0
     139 S001 47   QDM  BB   MMA    0.000000       41.0730           0
     140 S001 47   QDM  SC1  MAO    0.000000       58.0360           0
     141 S001 47   QDM  SC2  NC4    1.000000       73.1390           0
     142 S001 48   QDM  BB   MMA    0.000000       41.0730           0
     143 S001 48   QDM  SC1  MAO    0.000000       58.0360           0
     144 S001 48   QDM  SC2  NC4    1.000000       73.1390           0
     145 S001 49   QDM  BB   MMA    0.000000       41.0730           0
     146 S001 49   QDM  SC1  MAO    0.000000       58.0360           0
     147 S001 49   QDM  SC2  NC4    1.000000       73.1390           0
     148 S001 50   QDM  BB   MMA    0.000000       41.0730           0
     149 S001 50   QDM  SC1  MAO    0.000000       58.0360           0
     150 S001 50   QDM  SC2  NC4    1.000000       73.1390           0

     149 !NBOND: bonds
       1       2       1       4       2       3       4       5
       4       7       5       6       7       8       7      10
       8       9      10      11      10      13      11      12
      13      14      13      16      14      15      16      17
      16      19      17      18      19      20      19      22
      20      21      22      23      22      25      23      24
      25      26      25      28      26      27      28      29
      28      31      29      30      31      32      31      34
      32      33      34      35      34      37      35      36
      37      38      37      40      38      39      40      41
      40      43      41      42      43      44      43      46
      44      45      46      47      46      49      47      48
      49      50      49      52      50      51      52      53
      52      55      53      54      55      56      55      58
      56      57      58      59      58      61      59      60
      61      62      61      64      62      63      64      65
      64      67      65      66      67      68      67      70
      68      69      70      71      70      73      71      72
      73      74      73      76      74      75      76      77
      76      79      77      78      79      80      79      82
      80      81      82      83      82      85      83      84
      85      86      85      88      86      87      88      89
      88      91      89      90      91      92      91      94
      92      93      94      95      94      97      95      96
      97      98      97     100      98      99     100     101
     100     103     101     102     103     104     103     106
     104     105     106     107     106     109     107     108
     109     110     109     112     110     111     112     113
     112     115     113     114     115     116     115     118
     116     117     118     119     118     121     119     120
     121     122     121     124     122     123     124     125
     124     127     125     126     127     128     127     130
     128     129     130     131     130     133     131     132
     133     134     133     136     134     135     136     137
     136     139     137     138     139     140     139     142
     140     141     142     143     142     145     143     144
     145     146     145     148     146     147     148     149
     149     150

      98 !NTHETA: angles
       1       4       7       1       2       3       4       7      10
       4       5       6       7      10      13       7       8       9
      10      13      16      10      11      12      13      16      19
      13      14      15      16      19      22      16      17      18
      19      22      25      19      20      21      22      25      28
      22      23      24      25      28      31      25      26      27
      28      31      34      28      29      30      31      34      37
      31      32      33      34      37      40      34      35      36
      37      40      43      37      38      39      40      43      46
      40      41      42      43      46      49      43      44      45
      46      49      52      46      47      48      49      52      55
      49      50      51      52      55      58      52      53      54
      55      58      61      55      56      57      58      61      64
      58      59      60      61      64      67      61      62      63
      64      67      70      64      65      66      67      70      73
      67      68      69      70      73      76      70      71      72
      73      76      79      73      74      75      76      79      82
      76      77      78      79      82      85      79      80      81
      82      85      88      82      83      84      85      88      91
      85      86      87      88      91      94      88      89      90
      91      94      97      91      92      93      94      97     100
      94      95      96      97     100     103      97      98      99
     100     103     106     100     101     102     103     106     109
     103     104     105     106     109     112     106     107     108
     109     112     115     109     110     111     112     115     118
     112     113     114     115     118     121     115     116     117
     118     121     124     118     119     120     121     124     127
     121     122     123     124     127     130     124     125     126
     127     130     133     127     128     129     130     133     136
     130     131     132     133     136     139     133     134     135
     136     139     142     136     137     138     139     142     145
     139     140     141     142     145     148     142     143     144
     145     146     147     148     149     150

       0 !NPHI: dihedrals


       0 !NIMPHI: impropers


       0 !NDON: donors


       0 !NACC: acceptors


       0 !NNB

       0       0       0       0       0       0       0       0
       0       0       0       0       0       0       0       0
       0       0       0       0       0       0       0       0
       0       0       0       0       0       0       0       0
       0       0       0       0       0       0       0       0
       0       0       0       0       0       0       0       0
       0       0       0       0       0       0       0       0
       0       0       0       0       0       0       0       0
       0       0       0       0       0       0       0       0
       0       0       0       0       0       0       0       0
       0       0       0       0       0       0       0       0
       0       0       0       0       0       0       0       0
       0       0       0       0       0       0       0       0
       0       0       0       0       0       0       0       0
       0       0       0       0       0       0       0       0
       0       0       0       0       0       0       0       0
       0       0       0       0       0       0       0       0
       0       0       0       0       0       0       0       0
       0       0       0       0       0       0

       1       0 !NGRP
       0       0       0

